ITEM: TIMESTEP
0
ITEM: NUMBER OF ATOMS
32
ITEM: BOX BOUNDS pp pp pp
0.0000000000000000e+00 1.0493600000000001e+01
0.0000000000000000e+00 1.0493600000000001e+01
0.0000000000000000e+00 1.0493600000000001e+01
ITEM: ATOMS id type xu yu zu
1 1 -0.0157469 -0.0498828 -0.0806844
2 1 2.58226 2.59235 0.0289214
3 1 2.55435 -0.0229786 2.62481
4 1 -0.051464 2.65063 2.67128
5 1 5.2854 0.00427765 0.0589342
6 1 7.91467 2.52257 0.0176425
7 1 7.84234 0.0339907 2.67515
8 1 5.15752 2.60019 2.57326
9 1 0.0269015 5.23812 0.0499485
10 1 2.63424 7.85669 0.0728048
11 1 2.64049 5.21482 2.65878
12 1 -0.0890922 7.86252 2.61647
13 1 5.33761 5.23759 -0.118635
14 1 7.91265 7.90142 -0.0417772
15 1 7.91139 5.23683 2.57795
16 1 5.28561 7.9163 2.59817
17 1 -0.0288503 0.0405315 5.19121
18 1 2.72379 2.58636 5.37386
19 1 2.56413 -0.00939051 7.8418
20 1 -0.0436455 2.60456 7.86872
21 1 5.28655 -0.046731 5.28835
22 1 7.80324 2.68835 5.1816
23 1 7.90269 -0.00214638 7.78964
24 1 5.3734 2.63712 7.9465
25 1 0.0377352 5.23943 5.28648
26 1 2.53726 7.94421 5.20407
27 1 2.64684 5.30369 7.95213
28 1 0.0365263 7.91258 7.70072
29 1 5.26089 5.23558 5.29799
30 1 7.8106 7.82867 5.2798
31 1 7.84576 5.27606 7.87844
32 1 5.23715 7.88888 7.85887
ITEM: TIMESTEP
10
ITEM: NUMBER OF ATOMS
32
ITEM: BOX BOUNDS pp pp pp
0.0000000000000000e+00 1.0493600000000001e+01
0.0000000000000000e+00 1.0493600000000001e+01
0.0000000000000000e+00 1.0493600000000001e+01
ITEM: ATOMS id type xu yu zu
1 1 -0.000176012 -0.0611752 -0.0702511
2 1 2.56325 2.599 0.0338032
3 1 2.56491 -0.0272959 2.63155
4 1 -0.0473425 2.65365 2.68184
5 1 5.282 0.0172627 0.0420483
6 1 7.91004 2.5125 0.0196507
7 1 7.85002 0.0353809 2.67154
8 1 5.16471 2.5969 2.56791
9 1 0.0271462 5.25983 0.033166
10 1 2.64012 7.86312 0.0773222
11 1 2.65067 5.21248 2.66808
12 1 -0.0946705 7.85377 2.60353
13 1 5.34766 5.23291 -0.0937345
14 1 7.90824 7.90496 -0.0316444
15 1 7.90205 5.23988 2.57835
16 1 5.28768 7.91059 2.59205
17 1 -0.0518301 0.0253264 5.19706
18 1 2.73658 2.58365 5.37722
19 1 2.57104 -0.00949497 7.83862
20 1 -0.0314879 2.61627 7.85705
21 1 5.29115 -0.0484259 5.28905
22 1 7.80163 2.68597 5.17674
23 1 7.88648 0.00961026 7.79075
24 1 5.37446 2.63446 7.9264
25 1 0.0463953 5.23666 5.27842
26 1 2.53338 7.92953 5.20115
27 1 2.64083 5.29615 7.94564
28 1 0.0314103 7.9263 7.71543
29 1 5.24835 5.23378 5.30408
30 1 7.80868 7.82414 5.28364
31 1 7.84613 5.27441 7.873
32 1 5.2337 7.90109 7.86372
ITEM: TIMESTEP
20
ITEM: NUMBER OF ATOMS
32
ITEM: BOX BOUNDS pp pp pp
0.0000000000000000e+00 1.0493600000000001e+01
0.0000000000000000e+00 1.0493600000000001e+01
0.0000000000000000e+00 1.0493600000000001e+01
ITEM: ATOMS id type xu yu zu
1 1 0.0155291 -0.0715578 -0.0580724
2 1 2.54502 2.60584 0.0370697
3 1 2.57606 -0.0302593 2.63833
4 1 -0.0407992 2.65575 2.69132
5 1 5.27695 0.0292264 0.0229752
6 1 7.90611 2.50511 0.021713
7 1 7.8581 0.0355211 2.66702
8 1 5.17367 2.59449 2.56417
9 1 0.0265194 5.28132 0.0146608
10 1 2.6459 7.86957 0.0802469
11 1 2.6608 5.21114 2.67693
12 1 -0.0986224 7.84557 2.59187
13 1 5.35534 5.22879 -0.0648456
14 1 7.903 7.90827 -0.0223298
15 1 7.89035 5.24304 2.57936
16 1 5.28914 7.90289 2.58703
17 1 -0.0744305 0.011017 5.20319
18 1 2.7473 2.5819 5.37821
19 1 2.58033 -0.00937141 7.83729
20 1 -0.01911 2.62888 7.84528
21 1 5.29375 -0.0486376 5.28818
22 1 7.80097 2.68289 5.17349
23 1 7.87035 0.0209087 7.79342
24 1 5.37226 2.63014 7.90569
25 1 0.0542111 5.23334 5.26983
26 1 2.53315 7.91304 5.19758
27 1 2.63448 5.28757 7.93786
28 1 0.0245531 7.93794 7.73467
29 1 5.23444 5.2333 5.30845
30 1 7.80851 7.81972 5.28547
31 1 7.84998 5.27242 7.86747
32 1 5.2294 7.91343 7.86968
ITEM: TIMESTEP
30
ITEM: NUMBER OF ATOMS
32
ITEM: BOX BOUNDS pp pp pp
0.0000000000000000e+00 1.0493600000000001e+01
0.0000000000000000e+00 1.0493600000000001e+01
0.0000000000000000e+00 1.0493600000000001e+01
ITEM: ATOMS id type xu yu zu
1 1 0.0308591 -0.0804668 -0.0445619
2 1 2.52803 2.61281 0.0387995
3 1 2.58753 -0.0318275 2.6453
4 1 -0.0320479 2.65698 2.69943
5 1 5.27022 0.0399279 0.00241486
6 1 7.90341 2.50066 0.0235756
7 1 7.86616 0.0342593 2.66154
8 1 5.18408 2.59283 2.5621
9 1 0.0248939 5.30201 -0.00497727
10 1 2.65169 7.87566 0.0814665
11 1 2.67058 5.21074 2.68483
12 1 -0.100686 7.83806 2.58201
13 1 5.36037 5.22507 -0.033525
14 1 7.8968 7.9115 -0.0142687
15 1 7.87694 5.24601 2.58109
16 1 5.29003 7.89374 2.58327
17 1 -0.0958253 -0.0022186 5.20942
18 1 2.75553 2.58086 5.37651
19 1 2.59153 -0.00900088 7.83765
20 1 -0.00697732 2.64173 7.83377
21 1 5.29435 -0.0476292 5.28541
22 1 7.80126 2.67937 5.1718
23 1 7.85505 0.0314725 7.7978
24 1 5.36686 2.62489 7.8853
25 1 0.0608494 5.22983 5.26098
26 1 2.53625 7.89539 5.19374
27 1 2.62827 5.27841 7.92926
28 1 0.016249 7.9471 7.75775
29 1 5.21979 5.2343 5.31109
30 1 7.80997 7.81544 5.28533
31 1 7.85677 5.27015 7.86217
32 1 5.22442 7.92515 7.87673
ITEM: TIMESTEP
40
ITEM: NUMBER OF ATOMS
32
ITEM: BOX BOUNDS pp pp pp
0.0000000000000000e+00 1.0493600000000001e+01
0.0000000000000000e+00 1.0493600000000001e+01
0.0000000000000000e+00 1.0493600000000001e+01
ITEM: ATOMS id type xu yu zu
1 1 0.0453413 -0.0873891 -0.0301023
2 1 2.51274 2.61987 0.0391226
3 1 2.59907 -0.0320204 2.65255
4 1 -0.0213981 2.65738 2.70595
5 1 5.26183 0.0492342 -0.0188197
6 1 7.90236 2.49936 0.0250068
7 1 7.87381 0.0315207 2.65508
8 1 5.19559 2.59172 2.56173
9 1 0.0221957 5.32139 -0.0251191
10 1 2.65757 7.88105 0.0809516
11 1 2.6797 5.21113 2.69129
12 1 -0.100661 7.83128 2.57437
13 1 5.36252 5.22161 -0.00140318
14 1 7.88958 7.91476 -0.00779987
15 1 7.86257 5.2485 2.58369
16 1 5.29038 7.88378 2.58093
17 1 -0.115224 -0.0142788 5.21567
18 1 2.7609 2.5803 5.37188
19 1 2.60405 -0.00837273 7.83944
20 1 0.0044843 2.65412 7.82281
21 1 5.29306 -0.0457237 5.28052
22 1 7.80249 2.67566 5.17156
23 1 7.84126 0.0410235 7.80396
24 1 5.35844 2.61945 7.8661
25 1 0.0660132 5.22651 5.25213
26 1 2.5422 7.87728 5.19006
27 1 2.62266 5.26913 7.92031
28 1 0.00689828 7.95359 7.78376
29 1 5.20511 5.2369 5.31211
30 1 7.81288 7.81132 5.28337
31 1 7.8658 5.26763 7.85739
32 1 5.21897 7.9355 7.8847
ITEM: TIMESTEP
50
ITEM: NUMBER OF ATOMS
32
ITEM: BOX BOUNDS pp pp pp
0.0000000000000000e+00 1.0493600000000001e+01
0.0000000000000000e+00 1.0493600000000001e+01
0.0000000000000000e+00 1.0493600000000001e+01
ITEM: ATOMS id type xu yu zu
1 1 0.0585659 -0.0918948 -0.0150359
2 1 2.49955 2.627 0.0381997
3 1 2.61049 -0.0309223 2.66009
4 1 -0.00923604 2.65699 2.71073
5 1 5.25191 0.0571373 -0.0398381
6 1 7.90324 2.50128 0.0258164
7 1 7.88069 0.0273166 2.64766
8 1 5.20783 2.59092 2.56303
9 1 0.01841 5.33898 -0.0451033
10 1 2.66358 7.88541 0.0787614
11 1 2.68784 5.21217 2.69581
12 1 -0.0984266 7.82524 2.56926
13 1 5.36163 5.21827 0.0299137
14 1 7.88127 7.91813 -0.00313734
15 1 7.84813 5.25026 2.58736
16 1 5.2902 7.87365 2.58013
17 1 -0.131918 -0.025124 5.22193
18 1 2.7631 2.58 5.36417
19 1 2.61718 -0.00747755 7.84235
20 1 0.0149035 2.66538 7.81266
21 1 5.29009 -0.0432825 5.27341
22 1 7.80466 2.67198 5.17266
23 1 7.82954 0.0493077 7.81179
24 1 5.34728 2.61456 7.84886
25 1 0.0694614 5.22372 5.24349
26 1 2.55046 7.85946 5.18699
27 1 2.61803 5.26019 7.9114
28 1 -0.00304624 7.95737 7.81171
29 1 5.19118 5.24109 5.31166
30 1 7.81696 7.80742 5.27985
31 1 7.87628 5.26486 7.85335
32 1 5.21337 7.9438 7.89329
ITEM: TIMESTEP
60
ITEM: NUMBER OF ATOMS
32
ITEM: BOX BOUNDS pp pp pp
0.0000000000000000e+00 1.0493600000000001e+01
0.0000000000000000e+00 1.0493600000000001e+01
0.0000000000000000e+00 1.0493600000000001e+01
ITEM: ATOMS id type xu yu zu
1 1 0.0702107 -0.0936653 0.000337661
2 1 2.48882 2.63419 0.0362015
3 1 2.6216 -0.0286807 2.66785
4 1 0.00399715 2.65584 2.71369
5 1 5.24067 0.0637506 -0.0597157
6 1 7.90616 2.50641 0.0258685
7 1 7.8865 0.0217435 2.63931
8 1 5.22044 2.59017 2.56593
9 1 0.0135833 5.35437 -0.064242
10 1 2.66971 7.88851 0.0750409
11 1 2.69471 5.21365 2.69796
12 1 -0.0939518 7.8199 2.56681
13 1 5.3576 5.21496 0.0589302
14 1 7.8719 7.92165 -0.000354463
15 1 7.83449 5.2511 2.59226
16 1 5.28948 7.86401 2.58095
17 1 -0.145321 -0.03476 5.22821
18 1 2.76189 2.57974 5.35332
19 1 2.63017 -0.00630421 7.846
20 1 0.0239815 2.67492 7.80352
21 1 5.28579 -0.040674 5.26417
22 1 7.80772 2.66849 5.17495
23 1 7.82028 0.0561224 7.82111
24 1 5.33375 2.61085 7.83415
25 1 0.0710258 5.22174 5.23522
26 1 2.56046 7.84267 5.18496
27 1 2.61467 5.25197 7.90287
28 1 -0.0131238 7.9586 7.84053
29 1 5.17876 5.24678 5.30999
30 1 7.82192 7.80382 5.27506
31 1 7.88736 5.26186 7.8502
32 1 5.20795 7.94947 7.90211
ITEM: TIMESTEP
70
ITEM: NUMBER OF ATOMS
32
ITEM: BOX BOUNDS pp pp pp
0.0000000000000000e+00 1.0493600000000001e+01
0.0000000000000000e+00 1.0493600000000001e+01
0.0000000000000000e+00 1.0493600000000001e+01
ITEM: ATOMS id type xu yu zu
1 1 0.080049 -0.0925117 0.0157583
2 1 2.48083 2.64143 0.0332917
3 1 2.63224 -0.0255001 2.67567
4 1 0.0178271 2.65393 2.71483
5 1 5.2284 0.0692859 -0.0775414
6 1 7.91111 2.51463 0.0250878
7 1 7.89106 0.0149726 2.63013
8 1 5.23308 2.58921 2.57033
9 1 0.00782165 5.36715 -0.0818265
10 1 2.67587 7.89017 0.0700073
11 1 2.7 5.21537 2.69742
12 1 -0.0872875 7.81517 2.56701
13 1 5.35041 5.21158 0.0843373
14 1 7.86154 7.92529 0.000616678
15 1 7.8225 5.25091 2.59852
16 1 5.2882 7.85545 2.58341
17 1 -0.154988 -0.043222 5.23457
18 1 2.75718 2.57941 5.33941
19 1 2.64222 -0.00484256 7.84999
20 1 0.0315013 2.68219 7.79554
21 1 5.28056 -0.03824 5.25304
22 1 7.81163 2.66529 5.1783
23 1 7.81373 0.0613386 7.83162
24 1 5.31828 2.60886 7.82235
25 1 0.0706222 5.22082 5.22745
26 1 2.57161 7.8276 5.18435
27 1 2.61279 5.24483 7.89497
28 1 -0.022898 7.95759 7.86919
29 1 5.16852 5.25375 5.30734
30 1 7.82747 7.8006 5.26936
31 1 7.89824 5.25863 7.84797
32 1 5.20308 7.95205 7.9107
ITEM: TIMESTEP
80
ITEM: NUMBER OF ATOMS
32
ITEM: BOX BOUNDS pp pp pp
0.0000000000000000e+00 1.0493600000000001e+01
0.0000000000000000e+00 1.0493600000000001e+01
0.0000000000000000e+00 1.0493600000000001e+01
ITEM: ATOMS id type xu yu zu
1 1 0.0879452 -0.0883811 0.0309969
2 1 2.4758 2.64874 0.029616
3 1 2.64223 -0.0216337 2.68335
4 1 0.031763 2.6513 2.71419
5 1 5.21549 0.0740144 -0.0924688
6 1 7.91797 2.52575 0.0234586
7 1 7.89425 0.00723431 2.62025
8 1 5.24548 2.58782 2.57608
9 1 0.00128417 5.37699 -0.0971377
10 1 2.68192 7.89031 0.0639308
11 1 2.70346 5.21715 2.69395
12 1 -0.0785546 7.81099 2.56971
13 1 5.34014 5.2081 0.105076
14 1 7.85029 7.92897 -2.97014e-05
15 1 7.8129 5.24963 2.60616
16 1 5.28636 7.8485 2.58748
17 1 -0.160628 -0.0505609 5.24103
18 1 2.74899 2.57893 5.32262
19 1 2.65259 -0.00309178 7.85387
20 1 0.0373319 2.68679 7.78882
21 1 5.27486 -0.0362654 5.24043
22 1 7.81632 2.6624 5.1826
23 1 7.80993 0.0649127 7.84297
24 1 5.30135 2.60893 7.81363
25 1 0.0682555 5.22111 5.22031
26 1 2.58335 7.81486 5.18545
27 1 2.61246 5.239 7.88789
28 1 -0.0319761 7.95479 7.89666
29 1 5.16106 5.26167 5.30396
30 1 7.83333 7.79785 5.26314
31 1 7.90815 5.25517 7.84663
32 1 5.19911 7.95122 7.91858
ITEM: TIMESTEP
90
ITEM: NUMBER OF ATOMS
32
ITEM: BOX BOUNDS pp pp pp
0.0000000000000000e+00 1.0493600000000001e+01
0.0000000000000000e+00 1.0493600000000001e+01
0.0000000000000000e+00 1.0493600000000001e+01
ITEM: ATOMS id type xu yu zu
1 1 0.0938548 -0.0813586 0.0458426
2 1 2.47387 2.65608 0.0252965
3 1 2.65141 -0.0173725 2.69058
4 1 0.0453089 2.64795 2.71184
5 1 5.20236 0.0782218 -0.103767
6 1 7.92651 2.53952 0.0210189
7 1 7.89606 -0.00120001 2.60985
8 1 5.25738 2.58588 2.58301
9 1 -0.00582577 5.38356 -0.109467
10 1 2.68767 7.8889 0.0571111
11 1 2.70486 5.21885 2.68752
12 1 -0.0679257 7.80731 2.57462
13 1 5.32701 5.20447 0.120382
14 1 7.83828 7.93255 -0.00199996
15 1 7.80621 5.24731 2.61509
16 1 5.28393 7.84354 2.59303
17 1 -0.162095 -0.0568353 5.24759
18 1 2.73748 2.57834 5.30331
19 1 2.66062 -0.00107175 7.85719
20 1 0.0414348 2.68846 7.78341
21 1 5.26916 -0.0349559 5.22688
22 1 7.82172 2.65975 5.18775
23 1 7.80879 0.0668869 7.85479
24 1 5.28342 2.61128 7.80798
25 1 0.0640184 5.22269 5.2139
26 1 2.59514 7.80493 5.18846
27 1 2.61368 5.23466 7.88173
28 1 -0.0400175 7.95074 7.92203
29 1 5.15682 5.27009 5.30009
30 1 7.83928 7.79569 5.25676
31 1 7.91642 5.2515 7.84607
32 1 5.19637 7.94684 7.92528
ITEM: TIMESTEP
100
ITEM: NUMBER OF ATOMS
32
ITEM: BOX BOUNDS pp pp pp
0.0000000000000000e+00 1.0493600000000001e+01
0.0000000000000000e+00 1.0493600000000001e+01
0.0000000000000000e+00 1.0493600000000001e+01
ITEM: ATOMS id type xu yu zu
1 1 0.0978122 -0.0716562 0.0600896
2 1 2.47511 2.66344 0.0204243
3 1 2.65958 -0.0130343 2.69701
4 1 0.0579754 2.64395 2.7079
5 1 5.18947 0.0821641 -0.110871
6 1 7.93642 2.55564 0.0178525
7 1 7.89656 -0.0100349 2.59917
8 1 5.26861 2.58332 2.59088
9 1 -0.0132732 5.3866 -0.118154
10 1 2.69287 7.88604 0.0498521
11 1 2.70405 5.22037 2.67824
12 1 -0.0556088 7.8041 2.58137
13 1 5.31139 5.20067 0.129814
14 1 7.8257 7.93583 -0.00493449
15 1 7.80278 5.24403 2.62505
16 1 5.28095 7.84082 2.59988
17 1 -0.15938 -0.0621061 5.25422
18 1 2.72298 2.57772 5.28197
19 1 2.66577 0.00116668 7.85955
20 1 0.0438481 2.68704 7.77933
21 1 5.2639 -0.0344269 5.21306
22 1 7.82775 2.65723 5.1937
23 1 7.81007 0.0673785 7.86674
24 1 5.26495 2.61594 7.80523
25 1 0.058086 5.22556 5.20833
26 1 2.60648 7.79818 5.1935
27 1 2.61628 5.2319 7.87652
28 1 -0.0467374 7.94603 7.94449
29 1 5.15607 5.27852 5.29588
30 1 7.84512 7.79425 5.25058
31 1 7.9225 5.24767 7.84615
32 1 5.1951 7.93891 7.93037
ITEM: TIMESTEP
110
ITEM: NUMBER OF ATOMS
32
ITEM: BOX BOUNDS pp pp pp
0.0000000000000000e+00 1.0493600000000001e+01
0.0000000000000000e+00 1.0493600000000001e+01
0.0000000000000000e+00 1.0493600000000001e+01
ITEM: ATOMS id type xu yu zu
1 1 0.0999153 -0.0595965 0.0735235
2 1 2.47952 2.67075 0.0150684
3 1 2.66655 -0.00895251 2.70225
4 1 0.0692742 2.63936 2.70248
5 1 5.17727 0.0860321 -0.113423
6 1 7.94734 2.57379 0.0140791
7 1 7.89588 -0.0189649 2.58844
8 1 5.27903 2.58021 2.59945
9 1 -0.0208061 5.38588 -0.122628
10 1 2.69725 7.88186 0.042438
11 1 2.70096 5.2217 2.66639
12 1 -0.041836 7.80142 2.58951
13 1 5.29383 5.19672 0.133244
14 1 7.81274 7.93856 -0.00844226
15 1 7.80268 5.23994 2.63565
16 1 5.27744 7.84038 2.60772
17 1 -0.152591 -0.0664352 5.26083
18 1 2.70591 2.57725 5.25921
19 1 2.66769 0.00353692 7.8606
20 1 0.0446853 2.68255 7.7766
21 1 5.25952 -0.0347016 5.19969
22 1 7.83432 2.65467 5.2004
23 1 7.81346 0.0665626 7.8785
24 1 5.24637 2.62279 7.80508
25 1 0.0507057 5.22967 5.20375
26 1 2.61693 7.79482 5.20057
27 1 2.62002 5.23071 7.87223
28 1 -0.0519095 7.94121 7.96338
29 1 5.1589 5.28641 5.29141
30 1 7.85072 7.7937 5.24495
31 1 7.92594 5.24372 7.84671
32 1 5.1955 7.92766 7.93355
ITEM: TIMESTEP
120
ITEM: NUMBER OF ATOMS
32
ITEM: BOX BOUNDS pp pp pp
0.0000000000000000e+00 1.0493600000000001e+01
0.0000000000000000e+00 1.0493600000000001e+01
0.0000000000000000e+00 1.0493600000000001e+01
ITEM: ATOMS id type xu yu zu
1 1 0.100308 -0.0455918 0.0859106
2 1 2.48701 2.6779 0.00928462
3 1 2.67214 -0.00546163 2.70588
4 1 0.0787176 2.63429 2.69567
5 1 5.16614 0.0899303 -0.111307
6 1 7.95886 2.59359 0.00984529
7 1 7.89421 -0.0276864 2.57796
8 1 5.28854 2.57671 2.60844
9 1 -0.0281703 5.38132 -0.122476
10 1 2.70053 7.87657 0.0351123
11 1 2.69558 5.22289 2.65243
12 1 -0.0268584 7.79937 2.5986
13 1 5.27499 5.19264 0.130827
14 1 7.79961 7.94047 -0.0121323
15 1 7.8058 5.23523 2.64639
16 1 5.27344 7.84212 2.6162
17 1 -0.14194 -0.0698857 5.26727
18 1 2.6868 2.57716 5.23573
19 1 2.6662 0.00592006 7.86007
20 1 0.0441235 2.67516 7.77519
21 1 5.25638 -0.0357163 5.18753
22 1 7.84134 2.65184 5.20782
23 1 7.81855 0.0646517 7.88982
24 1 5.22809 2.63158 7.80717
25 1 0.0421855 5.23485 5.2003
26 1 2.62611 7.7949 5.20962
27 1 2.62452 5.23106 7.86877
28 1 -0.0553702 7.93675 7.97826
29 1 5.16525 5.29324 5.28673
30 1 7.85601 7.79421 5.24014
31 1 7.92645 5.23973 7.84758
32 1 5.19766 7.91347 7.93457
ITEM: TIMESTEP
130
ITEM: NUMBER OF ATOMS
32
ITEM: BOX BOUNDS pp pp pp
0.0000000000000000e+00 1.0493600000000001e+01
0.0000000000000000e+00 1.0493600000000001e+01
0.0000000000000000e+00 1.0493600000000001e+01
ITEM: ATOMS id type xu yu zu
1 1 0.0991637 -0.0301226 0.0969908
2 1 2.49741 2.68474 0.00312254
3 1 2.67615 -0.0028795 2.70752
4 1 0.0858306 2.62888 2.68758
5 1 5.15643 0.0938703 -0.104655
6 1 7.97052 2.61462 0.00531573
7 1 7.89176 -0.0359065 2.56801
8 1 5.29708 2.5731 2.61756
9 1 -0.0351202 5.37299 -0.117494
10 1 2.70245 7.87047 0.02806
11 1 2.68802 5.22404 2.63693
12 1 -0.0109476 7.7981 2.60815
13 1 5.25564 5.18851 0.122955
14 1 7.78658 7.94125 -0.0156392
15 1 7.81186 5.2301 2.65669
16 1 5.26903 7.84575 2.62489
17 1 -0.127736 -0.0725217 5.27339
18 1 2.66628 2.57769 5.21232
19 1 2.66137 0.0081769 7.85785
20 1 0.0423821 2.66515 7.77511
21 1 5.25476 -0.0373308 5.17736
22 1 7.84871 2.64852 5.21591
23 1 7.82491 0.0618758 7.90048
24 1 5.21047 2.64193 7.81108
25 1 0.0328793 5.24092 5.19817
26 1 2.63374 7.79831 5.22051
27 1 2.62931 5.23282 7.86599
28 1 -0.0570251 7.93296 7.98887
29 1 5.17484 5.29855 5.28178
30 1 7.86096 7.79598 5.23642
31 1 7.92389 5.23579 7.84862
32 1 5.2016 7.89687 7.93334
ITEM: TIMESTEP
140
ITEM: NUMBER OF ATOMS
32
ITEM: BOX BOUNDS pp pp pp
0.0000000000000000e+00 1.0493600000000001e+01
0.0000000000000000e+00 1.0493600000000001e+01
0.0000000000000000e+00 1.0493600000000001e+01
ITEM: ATOMS id type xu yu zu
1 1 0.096673 -0.0137184 0.106474
2 1 2.51045 2.69107 -0.00336087
3 1 2.67845 -0.00148403 2.70685
4 1 0.0901664 2.62331 2.6783
5 1 5.14838 0.0977765 -0.0938429
6 1 7.98178 2.63641 0.000664045
7 1 7.88878 -0.0433512 2.5589
8 1 5.30462 2.56971 2.62651
9 1 -0.0414243 5.36114 -0.107744
10 1 2.7028 7.86388 0.021397
11 1 2.67847 5.22528 2.62055
12 1 0.00559964 7.79782 2.61772
13 1 5.23661 5.1844 0.11021
14 1 7.77394 7.94061 -0.0186412
15 1 7.82047 5.22482 2.666
16 1 5.26424 7.85086 2.63336
17 1 -0.110377 -0.0744076 5.27896
18 1 2.64502 2.5791 5.18979
19 1 2.65349 0.0101661 7.85398
20 1 0.0397099 2.65293 7.77633
21 1 5.25484 -0.0393407 5.16987
22 1 7.85635 2.64447 5.22463
23 1 7.83211 0.0584635 7.91035
24 1 5.19388 2.65335 7.81639
25 1 0.02317 5.2476 5.19755
26 1 2.63963 7.8048 5.23303
27 1 2.63386 5.23588 7.86373
28 1 -0.0568558 7.92996 7.99525
29 1 5.18725 5.30194 5.27646
30 1 7.86557 7.79921 5.23395
31 1 7.91829 5.23203 7.84974
32 1 5.20726 7.87853 7.92983
ITEM: TIMESTEP
150
ITEM: NUMBER OF ATOMS
32
ITEM: BOX BOUNDS pp pp pp
0.0000000000000000e+00 1.0493600000000001e+01
0.0000000000000000e+00 1.0493600000000001e+01
0.0000000000000000e+00 1.0493600000000001e+01
ITEM: ATOMS id type xu yu zu
1 1 0.0930287 0.00305981 0.114041
2 1 2.52574 2.69662 -0.010086
3 1 2.67898 -0.00148511 2.70365
4 1 0.091331 2.61777 2.66793
5 1 5.14216 0.101503 -0.0794546
6 1 7.99206 2.65839 -0.00393638
7 1 7.88551 -0.0497742 2.55092
8 1 5.31112 2.56692 2.63503
9 1 -0.0468605 5.34627 -0.0935363
10 1 2.70145 7.85717 0.0151658
11 1 2.6672 5.22673 2.60398
12 1 0.0224541 7.79874 2.6269
13 1 5.21871 5.18046 0.0933208
14 1 7.762 7.93825 -0.0208707
15 1 7.83117 5.21963 2.6738
16 1 5.25912 7.85697 2.64118
17 1 -0.0903519 -0.0756045 5.28373
18 1 2.62374 2.58164 5.16895
19 1 2.64304 0.0117645 7.84863
20 1 0.0363747 2.63902 7.77887
21 1 5.2567 -0.0414919 5.16567
22 1 7.86415 2.63946 5.2339
23 1 7.83971 0.0546248 7.91933
24 1 5.17864 2.66525 7.82263
25 1 0.013451 5.25463 5.19863
26 1 2.64372 7.81398 5.24691
27 1 2.63759 5.24008 7.86175
28 1 -0.0549258 7.92767 7.9976
29 1 5.20192 5.30312 5.27064
30 1 7.86989 7.80408 5.23287
31 1 7.90988 5.22856 7.85089
32 1 5.2145 7.85921 7.92416
ITEM: TIMESTEP
160
ITEM: NUMBER OF ATOMS
32
ITEM: BOX BOUNDS pp pp pp
0.0000000000000000e+00 1.0493600000000001e+01
0.0000000000000000e+00 1.0493600000000001e+01
0.0000000000000000e+00 1.0493600000000001e+01
ITEM: ATOMS id type xu yu zu
1 1 0.0884116 0.0196354 0.119359
2 1 2.54279 2.70107 -0.0169388
3 1 2.67775 -0.00299483 2.69784
4 1 0.0890139 2.61247 2.6566
5 1 5.13785 0.10485 -0.0622375
6 1 8.00073 2.67993 -0.0083234
7 1 7.88221 -0.0549654 2.54432
8 1 5.31656 2.56512 2.6429
9 1 -0.0512063 5.32903 -0.0754225
10 1 2.69831 7.85072 0.00933811
11 1 2.65459 5.22849 2.58793
12 1 0.0392492 7.80109 2.63531
13 1 5.20274 5.17686 0.0731332
14 1 7.75111 7.93394 -0.0221184
15 1 7.84347 5.21481 2.67967
16 1 5.25371 7.8635 2.64795
17 1 -0.0682423 -0.0761647 5.28745
18 1 2.60313 2.5855 5.15051
19 1 2.63069 0.0128859 7.84215
20 1 0.032642 2.624 7.78271
21 1 5.26028 -0.0434971 5.16522
22 1 7.87204 2.63333 5.24359
23 1 7.84731 0.0505374 7.92737
24 1 5.16507 2.67699 7.82936
25 1 0.00410336 5.26171 5.20161
26 1 2.64606 7.82534 5.26182
27 1 2.63991 5.24525 7.8598
28 1 -0.0513843 7.92584 7.99634
29 1 5.2182 5.30194 5.26418
30 1 7.874 7.81075 5.23322
31 1 7.89902 5.22552 7.85206
32 1 5.22309 7.83971 7.91649
ITEM: TIMESTEP
170
ITEM: NUMBER OF ATOMS
32
ITEM: BOX BOUNDS pp pp pp
0.0000000000000000e+00 1.0493600000000001e+01
0.0000000000000000e+00 1.0493600000000001e+01
0.0000000000000000e+00 1.0493600000000001e+01
ITEM: ATOMS id type xu yu zu
1 1 0.0829875 0.0354293 0.122092
2 1 2.56099 2.7041 -0.0237673
3 1 2.67485 -0.00600148 2.68954
4 1 0.0830432 2.60763 2.64452
5 1 5.13554 0.107581 -0.0430471
6 1 8.00707 2.70029 -0.0123589
7 1 7.87912 -0.0587602 2.53933
8 1 5.32089 2.56465 2.64996
9 1 -0.0542282 5.31028 -0.0541618
10 1 2.69342 7.84493 0.00382463
11 1 2.64109 5.23062 2.57302
12 1 0.05558 7.80509 2.64267
13 1 5.18939 5.17384 0.0505892
14 1 7.74163 7.9275 -0.0222335
15 1 7.8569 5.21061 2.68333
16 1 5.24803 7.86992 2.65338
17 1 -0.0447204 -0.0761238 5.28983
18 1 2.58387 2.59082 5.13506
19 1 2.61723 0.0134944 7.835
20 1 0.0287606 2.60854 7.78787
21 1 5.26542 -0.045056 5.1688
22 1 7.87992 2.62594 5.25355
23 1 7.85453 0.0463335 7.93448
24 1 5.15346 2.68787 7.8361
25 1 -0.0045278 5.26854 5.20661
26 1 2.64679 7.8383 5.27738
27 1 2.64025 5.2512 7.85763
28 1 -0.0464644 7.92411 7.99202
29 1 5.23538 5.29831 5.25693
30 1 7.87796 7.8193 5.23495
31 1 7.88626 5.22305 7.85324
32 1 5.23279 7.82083 7.90706
ITEM: TIMESTEP
180
ITEM: NUMBER OF ATOMS
32
ITEM: BOX BOUNDS pp pp pp
0.0000000000000000e+00 1.0493600000000001e+01
0.0000000000000000e+00 1.0493600000000001e+01
0.0000000000000000e+00 1.0493600000000001e+01
ITEM: ATOMS id type xu yu zu
1 1 0.0768995 0.0498753 0.121918
2 1 2.57966 2.70539 -0.0303772
3 1 2.67047 -0.0103543 2.67904
4 1 0.0734198 2.60342 2.63197
5 1 5.13527 0.109441 -0.0227921
6 1 8.01036 2.71872 -0.0159422
7 1 7.87646 -0.0610487 2.53615
8 1 5.32409 2.56581 2.65611
9 1 -0.05568 5.29094 -0.0306605
10 1 2.68686 7.84016 -0.00151088
11 1 2.6272 5.23311 2.55984
12 1 0.0710078 7.81087 2.64876
13 1 5.17923 5.17168 0.0266977
14 1 7.7339 7.91885 -0.0211198
15 1 7.87095 5.20732 2.68466
16 1 5.24211 7.87571 2.65727
17 1 -0.0205411 -0.0754905 5.29058
18 1 2.56655 2.59766 5.12302
19 1 2.60353 0.0136123 7.82776
20 1 0.0249507 2.59331 7.79434
21 1 5.27183 -0.0458764 5.1765
22 1 7.88772 2.61724 5.26359
23 1 7.86105 0.0420919 7.94069
24 1 5.14408 2.69718 7.84236
25 1 -0.0121588 5.27489 5.21371
26 1 2.64618 7.85222 5.29312
27 1 2.63813 5.25771 7.85498
28 1 -0.0404771 7.92209 7.98524
29 1 5.25274 5.2923 5.24875
30 1 7.88189 7.82974 5.23795
31 1 7.87227 5.22124 7.85446
32 1 5.24325 7.80338 7.89615
ITEM: TIMESTEP
190
ITEM: NUMBER OF ATOMS
32
ITEM: BOX BOUNDS pp pp pp
0.0000000000000000e+00 1.0493600000000001e+01
0.0000000000000000e+00 1.0493600000000001e+01
0.0000000000000000e+00 1.0493600000000001e+01
ITEM: ATOMS id type xu yu zu
1 1 0.0702591 0.0624423 0.118565
2 1 2.59806 2.70464 -0.0365356
3 1 2.66485 -0.0157641 2.66675
4 1 0.0603382 2.6 2.61937
5 1 5.13707 0.110178 -0.0023805
6 1 8.0099 2.73443 -0.0190219
7 1 7.87441 -0.0617819 2.53492
8 1 5.32612 2.5688 2.66133
9 1 -0.055318 5.27196 -0.00591877
10 1 2.67882 7.83671 -0.00683367
11 1 2.61351 5.2359 2.54887
12 1 0.0850723 7.81851 2.65345
13 1 5.17266 5.17071 0.00249661
14 1 7.72824 7.908 -0.0187316
15 1 7.88518 5.20519 2.68368
16 1 5.23597 7.88044 2.65954
17 1 0.00347898 -0.0742365 5.28941
18 1 2.55164 2.60598 5.1146
19 1 2.5905 0.0133192 7.82105
20 1 0.0213932 2.57899 7.80212
21 1 5.27913 -0.0456951 5.18817
22 1 7.89537 2.60724 5.27347
23 1 7.86661 0.0378345 7.94607
24 1 5.13712 2.70426 7.84763
25 1 -0.0185902 5.28055 5.22289
26 1 2.64456 7.86644 5.30855
27 1 2.63323 5.26455 7.85167
28 1 -0.0338001 7.91939 7.97665
29 1 5.26961 5.28403 5.23956
30 1 7.88589 7.84197 5.24203
31 1 7.85778 5.22015 7.85572
32 1 5.25413 7.78806 7.88409
ITEM: TIMESTEP
200
ITEM: NUMBER OF ATOMS
32
ITEM: BOX BOUNDS pp pp pp
0.0000000000000000e+00 1.0493600000000001e+01
0.0000000000000000e+00 1.0493600000000001e+01
0.0000000000000000e+00 1.0493600000000001e+01
ITEM: ATOMS id type xu yu zu
1 1 0.0631418 0.0726568 0.111845
2 1 2.61548 2.70167 -0.041984
3 1 2.65829 -0.0218205 2.65322
4 1 0.0441863 2.5974 2.60721
5 1 5.14102 0.109547 0.0173271
6 1 8.00505 2.74671 -0.0216007
7 1 7.87312 -0.0609739 2.53571
8 1 5.32696 2.57372 2.66562
9 1 -0.0529364 5.25423 0.0190128
10 1 2.66953 7.83483 -0.0123188
11 1 2.60058 5.23886 2.54051
12 1 0.0973076 7.82797 2.65667
13 1 5.16989 5.17126 -0.0209981
14 1 7.72493 7.89506 -0.0150682
15 1 7.89913 5.20447 2.6806
16 1 5.22966 7.88376 2.66023
17 1 0.0264972 -0.072288 5.2861
18 1 2.53948 2.61569 5.1098
19 1 2.57902 0.0127446 7.81553
20 1 0.0182232 2.56622 7.81115
21 1 5.28691 -0.0442956 5.2035
22 1 7.90283 2.59605 5.28296
23 1 7.87101 0.0335287 7.95075
24 1 5.13274 2.70855 7.85143
25 1 -0.0237237 5.28538 5.23401
26 1 2.64231 7.8803 5.32311
27 1 2.62538 5.27141 7.84756
28 1 -0.0268617 7.91572 7.96686
29 1 5.2854 5.27374 5.22932
30 1 7.89004 7.85582 5.24692
31 1 7.84361 5.21977 7.857
32 1 5.26501 7.77552 7.8712
ITEM: TIMESTEP
210
ITEM: NUMBER OF ATOMS
32
ITEM: BOX BOUNDS pp pp pp
0.0000000000000000e+00 1.0493600000000001e+01
0.0000000000000000e+00 1.0493600000000001e+01
0.0000000000000000e+00 1.0493600000000001e+01
ITEM: ATOMS id type xu yu zu
1 1 0.0555865 0.0801242 0.101691
2 1 2.63129 2.6964 -0.0464567
3 1 2.65108 -0.0280223 2.63902
4 1 0.0255201 2.5956 2.59607
5 1 5.14716 0.107335 0.0355553
6 1 7.99533 2.75496 -0.023731
7 1 7.87266 -0.0586999 2.53855
8 1 5.32658 2.58055 2.66904
9 1 -0.0484166 5.23851 0.0430672
10 1 2.65929 7.83466 -0.0181314
11 1 2.58899 5.24187 2.53505
12 1 0.107263 7.83915 2.65845
13 1 5.17086 5.17361 -0.0428497
14 1 7.72422 7.88024 -0.0101697
15 1 7.91241 5.20539 2.67575
16 1 5.22324 7.88546 2.65952
17 1 0.0476935 -0.0695231 5.28049
18 1 2.5303 2.62661 5.10846
19 1 2.56988 0.0120518 7.81184
20 1 0.015526 2.55556 7.82138
21 1 5.2947 -0.0415187 5.222
22 1 7.91005 2.58384 5.29183
23 1 7.87412 0.0290967 7.95485
24 1 5.13097 2.7096 7.85334
25 1 -0.0275703 5.2893 5.24683
26 1 2.63987 7.89317 5.33623
27 1 2.61464 5.27797 7.84262
28 1 -0.0201212 7.91086 7.95643
29 1 5.29962 5.26173 5.21807
30 1 7.89443 7.87102 5.25234
31 1 7.83055 5.22005 7.85825
32 1 5.27549 7.76626 7.85783
ITEM: TIMESTEP
220
ITEM: NUMBER OF ATOMS
32
ITEM: BOX BOUNDS pp pp pp
0.0000000000000000e+00 1.0493600000000001e+01
0.0000000000000000e+00 1.0493600000000001e+01
0.0000000000000000e+00 1.0493600000000001e+01
ITEM: ATOMS id type xu yu zu
1 1 0.0475966 0.0845465 0.0881762
2 1 2.64498 2.68888 -0.0497033
3 1 2.64355 -0.0338143 2.62473
4 1 0.00502054 2.59446 2.5865
5 1 5.15554 0.103371 0.0516416
6 1 7.98049 2.7588 -0.0254986
7 1 7.87307 -0.0550906 2.5434
8 1 5.325 2.58916 2.67161
9 1 -0.0417766 5.22535 0.0651895
10 1 2.64844 7.83624 -0.0244083
11 1 2.57927 5.24478 2.53271
12 1 0.114524 7.85178 2.65885
13 1 5.17529 5.17799 -0.0622556
14 1 7.72629 7.86387 -0.00411469
15 1 7.92462 5.20812 2.66958
16 1 5.21679 7.88543 2.65762
17 1 0.0663288 -0.0657771 5.27253
18 1 2.52416 2.6385 5.11032
19 1 2.56375 0.0114162 7.81053
20 1 0.013337 2.54752 7.83269
21 1 5.30202 -0.0372678 5.24305
22 1 7.91704 2.57087 5.29984
23 1 7.87588 0.0244303 7.95852
24 1 5.1318 2.70714 7.85303
25 1 -0.0302491 5.29226 5.26098
26 1 2.63767 7.90448 5.34731
27 1 2.60132 5.28387 7.83695
28 1 -0.0140473 7.90477 7.94585
29 1 5.31188 5.24838 5.20593
30 1 7.89914 7.88721 5.25793
31 1 7.81936 5.22087 7.85938
32 1 5.28513 7.76065 7.8443
ITEM: TIMESTEP
230
ITEM: NUMBER OF ATOMS
32
ITEM: BOX BOUNDS pp pp pp
0.0000000000000000e+00 1.0493600000000001e+01
0.0000000000000000e+00 1.0493600000000001e+01
0.0000000000000000e+00 1.0493600000000001e+01
ITEM: ATOMS id type xu yu zu
1 1 0.0391527 0.0857346 0.0715579
2 1 2.65626 2.67931 -0.0515106
3 1 2.63601 -0.0386271 2.61086
4 1 -0.0165554 2.59377 2.57902
5 1 5.16617 0.0975267 0.0650548
6 1 7.96055 2.75806 -0.026998
7 1 7.87429 -0.0503246 2.55017
8 1 5.32221 2.5993 2.67337
9 1 -0.0331994 5.21507 0.084372
10 1 2.63735 7.83954 -0.0312399
11 1 2.57187 5.24746 2.53363
12 1 0.118735 7.86554 2.65797
13 1 5.18262 5.18447 -0.07859
14 1 7.73128 7.84636 0.00297874
15 1 7.93542 5.21282 2.66257
16 1 5.21041 7.88368 2.65484
17 1 0.0818064 -0.0608592 5.26233
18 1 2.52105 2.65106 5.11503
19 1 2.5611 0.0109979 7.81201
20 1 0.0116453 2.54247 7.84493
21 1 5.30844 -0.0315108 5.26592
22 1 7.92377 2.55745 5.30681
23 1 7.87631 0.0194095 7.96192
24 1 5.1351 2.70113 7.85033
25 1 -0.0319768 5.29428 5.27596
26 1 2.6361 7.91375 5.35582
27 1 2.58594 5.2887 7.83078
28 1 -0.00909315 7.89751 7.93555
29 1 5.32194 5.23415 5.19314
30 1 7.90421 7.904 5.26338
31 1 7.81074 5.22207 7.86025
32 1 5.29355 7.75892 7.83098
ITEM: TIMESTEP
240
ITEM: NUMBER OF ATOMS
32
ITEM: BOX BOUNDS pp pp pp
0.0000000000000000e+00 1.0493600000000001e+01
0.0000000000000000e+00 1.0493600000000001e+01
0.0000000000000000e+00 1.0493600000000001e+01
ITEM: ATOMS id type xu yu zu
1 1 0.0302214 0.0836135 0.0522777
2 1 2.66497 2.66801 -0.0517193
3 1 2.6288 -0.041916 2.59782
4 1 -0.0384209 2.59325 2.57399
5 1 5.17901 0.0897299 0.0754065
6 1 7.93586 2.75283 -0.0283065
7 1 7.87622 -0.0446213 2.55871
8 1 5.31824 2.61062 2.67427
9 1 -0.0230278 5.20774 0.0997028
10 1 2.62638 7.84442 -0.0386548
11 1 2.56714 5.24985 2.53786
12 1 0.119628 7.87996 2.65591
13 1 5.19212 5.19298 -0.0914292
14 1 7.7393 7.82821 0.0109488
15 1 7.9445 5.21956 2.65526
16 1 5.20421 7.88029 2.65148
17 1 0.0937329 -0.0545827 5.25019
18 1 2.52083 2.66396 5.12221
19 1 2.56218 0.0109155 7.81651
20 1 0.0103982 2.54066 7.8579
21 1 5.31352 -0.0242827 5.28978
22 1 7.93026 2.54394 5.31258
23 1 7.87551 0.0139213 7.96518
24 1 5.14067 2.69173 7.84525
25 1 -0.033051 5.29537 5.29118
26 1 2.63549 7.92063 5.36124
27 1 2.56924 5.29208 7.82447