ITEM: TIMESTEP
0
ITEM: NUMBER OF ATOMS
32
ITEM: BOX BOUNDS pp pp pp
0.0000000000000000e+00 1.0493600000000001e+01
0.0000000000000000e+00 1.0493600000000001e+01
0.0000000000000000e+00 1.0493600000000001e+01
ITEM: ATOMS id type x y z mass
1 1 0 0 0 39.95
2 1 2.6234 2.6234 0 39.95
3 1 2.6234 0 2.6234 39.95
4 1 0 2.6234 2.6234 39.95
5 1 5.2468 0 0 39.95
6 1 7.8702 2.6234 0 39.95
7 1 7.8702 0 2.6234 39.95
8 1 5.2468 2.6234 2.6234 39.95
9 1 0 5.2468 0 39.95
10 1 2.6234 7.8702 0 39.95
11 1 2.6234 5.2468 2.6234 39.95
12 1 0 7.8702 2.6234 39.95
13 1 5.2468 5.2468 0 39.95
14 1 7.8702 7.8702 0 39.95
15 1 7.8702 5.2468 2.6234 39.95
16 1 5.2468 7.8702 2.6234 39.95
17 1 0 0 5.2468 39.95
18 1 2.6234 2.6234 5.2468 39.95
19 1 2.6234 0 7.8702 39.95
20 1 0 2.6234 7.8702 39.95
21 1 5.2468 0 5.2468 39.95
22 1 7.8702 2.6234 5.2468 39.95
23 1 7.8702 0 7.8702 39.95
24 1 5.2468 2.6234 7.8702 39.95
25 1 0 5.2468 5.2468 39.95
26 1 2.6234 7.8702 5.2468 39.95
27 1 2.6234 5.2468 7.8702 39.95
28 1 0 7.8702 7.8702 39.95
29 1 5.2468 5.2468 5.2468 39.95
30 1 7.8702 7.8702 5.2468 39.95
31 1 7.8702 5.2468 7.8702 39.95
32 1 5.2468 7.8702 7.8702 39.95
