ITEM: TIMESTEP
0
ITEM: NUMBER OF ATOMS
32
ITEM: BOX BOUNDS pp pp pp
0.0000000000000000e+00 1.0493600000000001e+01
0.0000000000000000e+00 1.0493600000000001e+01
0.0000000000000000e+00 1.0493600000000001e+01
ITEM: ATOMS id type x y z ix iy iz fx fy fz
1 1 10.4779 10.4437 10.4129 -1 -1 -1 0.155933 0.0783113 0.519209
2 1 2.58226 2.59235 0.0289214 0 0 0 0.0731663 0.0615016 -0.388942
3 1 2.55435 10.4706 2.62481 0 -1 0 0.210713 0.301166 -0.0312775
4 1 10.4421 2.65063 2.67128 -1 0 0 0.605704 -0.227623 -0.181686
5 1 5.2854 0.00427765 0.0589342 0 0 0 -0.368272 -0.168955 -0.658996
6 1 7.91467 2.52257 0.0176425 0 0 0 0.01416 0.555301 0.0737944
7 1 7.84234 0.0339907 2.67515 0 0 0 0.192396 -0.248551 -0.208018
8 1 5.15752 2.60019 2.57326 0 0 0 0.482753 0.226601 0.352524
9 1 0.0269015 5.23812 0.0499485 0 0 0 -0.167813 0.0846173 -0.541345
10 1 2.63424 7.85669 0.0728048 0 0 0 -0.0532849 0.0962163 -0.338207
11 1 2.64049 5.21482 2.65878 0 0 0 0.0522247 0.242038 0.00248941
12 1 10.4045 7.86252 2.61647 -1 0 0 0.317465 0.0921813 0.176017
13 1 5.33761 5.23759 10.375 0 0 -1 -0.477253 0.169649 1.2843
14 1 7.91265 7.90142 10.4518 0 0 -1 -0.164256 -0.0852961 -0.0768112
15 1 7.91139 5.23683 2.57795 0 0 0 -0.678298 0.0989174 0.125217
16 1 5.28561 7.9163 2.59817 0 0 0 -0.160823 -0.58686 0.217272
17 1 10.4647 0.0405315 5.19121 -1 0 0 -0.104546 0.152323 0.125156
18 1 2.72379 2.58636 5.37386 0 0 0 -0.391671 0.281135 -0.485887
19 1 2.56413 10.4842 7.8418 0 -1 0 0.642683 0.0465298 0.457296
20 1 10.45 2.60456 7.86872 -1 0 0 0.169007 0.367889 -0.114781
21 1 5.28655 10.4469 5.28835 0 -1 0 -0.450457 0.401282 -0.285984
22 1 7.80324 2.68835 5.1816 0 0 0 0.222 -0.227931 0.387247
23 1 7.90269 10.4915 7.78964 0 -1 0 -0.163557 -0.0473499 0.307136
24 1 5.3734 2.63712 7.9465 0 0 0 -0.757872 -0.542896 -0.371502
25 1 0.0377352 5.23943 5.28648 0 0 0 -0.118087 -0.221847 -0.204474
26 1 2.53726 7.94421 5.20407 0 0 0 0.91416 -0.562465 -0.216143
27 1 2.64684 5.30369 7.95213 0 0 0 -0.204676 -0.357509 -0.4275
28 1 0.0365263 7.91258 7.70072 0 0 0 -0.454672 -0.376126 1.20974
29 1 5.26089 5.23558 5.29799 0 0 0 -0.449953 0.263344 -0.391974
30 1 7.8106 7.82867 5.2798 0 0 0 0.427678 0.0273372 -0.468411
31 1 7.84576 5.27606 7.87844 0 0 0 0.899699 -0.100755 -0.0958087
32 1 5.23715 7.88888 7.85887 0 0 0 -0.214252 0.207823 0.250354
ITEM: TIMESTEP
10
ITEM: NUMBER OF ATOMS
32
ITEM: BOX BOUNDS pp pp pp
0.0000000000000000e+00 1.0493600000000001e+01
0.0000000000000000e+00 1.0493600000000001e+01
0.0000000000000000e+00 1.0493600000000001e+01
ITEM: ATOMS id type x y z ix iy iz fx fy fz
1 1 10.4934 10.4324 10.4233 -1 -1 -1 0.0336105 0.216306 0.4176
2 1 2.56325 2.599 0.0338032 0 0 0 0.183717 0.0441273 -0.386544
3 1 2.56491 10.4663 2.63155 0 -1 0 0.139734 0.323874 0.0133631
4 1 10.4463 2.65365 2.68184 -1 0 0 0.580858 -0.218515 -0.25937
5 1 5.282 0.0172627 0.0420483 0 0 0 -0.393347 -0.243924 -0.52684
6 1 7.91004 2.5125 0.0196507 0 0 0 0.166721 0.638352 0.0131743
7 1 7.85002 0.0353809 2.67154 0 0 0 0.0979761 -0.299475 -0.219627
8 1 5.16471 2.5969 2.56791 0 0 0 0.423321 0.210846 0.382848
9 1 0.0271462 5.25983 0.033166 0 0 0 -0.208907 -0.0535148 -0.414137
10 1 2.64012 7.86312 0.0773222 0 0 0 -0.0219644 0.00619681 -0.381135
11 1 2.65067 5.21248 2.66808 0 0 0 -0.0118317 0.238983 -0.10536
12 1 10.3989 7.85377 2.60353 -1 0 0 0.388414 0.134093 0.307383
13 1 5.34766 5.23291 10.3999 0 0 -1 -0.566151 0.133762 0.958716
14 1 7.90824 7.90496 10.462 0 0 -1 -0.198929 -0.0520768 -0.195455
15 1 7.90205 5.23988 2.57835 0 0 0 -0.566724 0.0283391 0.14307
16 1 5.28768 7.91059 2.59205 0 0 0 -0.14643 -0.478571 0.262014
17 1 10.4418 0.0253264 5.19706 -1 0 0 0.0877349 0.213898 0.0651701
18 1 2.73658 2.58365 5.37722 0 0 0 -0.493138 0.228521 -0.568292
19 1 2.57104 10.4841 7.83862 0 -1 0 0.570761 0.0547532 0.441651
20 1 10.4621 2.61627 7.85705 -1 0 0 0.0534898 0.218985 -0.0245927
21 1 5.29115 10.4452 5.28905 0 -1 0 -0.478072 0.355363 -0.376864
22 1 7.80163 2.68597 5.17674 0 0 0 0.226472 -0.168656 0.385659
23 1 7.88648 10.5032 7.79075 0 -1 0 0.0185189 -0.107692 0.372881
24 1 5.37446 2.63446 7.9264 0 0 0 -0.778966 -0.397253 -0.150966
25 1 0.0463953 5.23666 5.27842 0 0 0 -0.200944 -0.134374 -0.129964
26 1 2.53338 7.92953 5.20115 0 0 0 0.875927 -0.435788 -0.15662
27 1 2.64083 5.29615 7.94564 0 0 0 -0.0827592 -0.251584 -0.310804
28 1 0.0314103 7.9263 7.71543 0 0 0 -0.419153 -0.500314 1.09049
29 1 5.24835 5.23378 5.30408 0 0 0 -0.331873 0.31483 -0.414
30 1 7.80868 7.82414 5.28364 0 0 0 0.420732 0.0259206 -0.481534
31 1 7.84613 5.27441 7.873 0 0 0 0.833638 -0.0797184 -0.0228895
32 1 5.2337 7.90109 7.86372 0 0 0 -0.202438 0.0343082 0.270979
ITEM: TIMESTEP
20
ITEM: NUMBER OF ATOMS
32
ITEM: BOX BOUNDS pp pp pp
0.0000000000000000e+00 1.0493600000000001e+01
0.0000000000000000e+00 1.0493600000000001e+01
0.0000000000000000e+00 1.0493600000000001e+01
ITEM: ATOMS id type x y z ix iy iz fx fy fz
1 1 10.5091 10.422 10.4355 -1 -1 -1 -0.0848211 0.349358 0.321785
2 1 2.54502 2.60584 0.0370697 0 0 0 0.291696 0.0326213 -0.366989
3 1 2.57606 10.4633 2.63833 0 -1 0 0.078395 0.333472 0.0493481
4 1 10.4528 2.65575 2.69132 -1 0 0 0.531655 -0.206939 -0.325028
5 1 5.27695 0.0292264 0.0229752 0 0 0 -0.405729 -0.299493 -0.364259
6 1 7.90611 2.50511 0.021713 0 0 0 0.295901 0.704167 -0.0474067
7 1 7.8581 0.0355211 2.66702 0 0 0 -0.000461031 -0.336405 -0.230358
8 1 5.17367 2.59449 2.56417 0 0 0 0.351084 0.178535 0.400026
9 1 0.0265194 5.28132 0.0146608 0 0 0 -0.239844 -0.182299 -0.277922
10 1 2.6459 7.86957 0.0802469 0 0 0 0.00568452 -0.0829803 -0.407914
11 1 2.6608 5.21114 2.67693 0 0 0 -0.0796963 0.22256 -0.221664
12 1 10.395 7.84557 2.59187 -1 0 0 0.450938 0.161347 0.427479
13 1 5.35534 5.22879 10.4288 0 0 -1 -0.633339 0.0944584 0.592543
14 1 7.903 7.90827 10.4713 0 0 -1 -0.229847 -0.0191104 -0.298082
15 1 7.89035 5.24304 2.57936 0 0 0 -0.417473 -0.0447666 0.171932
16 1 5.28914 7.90289 2.58703 0 0 0 -0.134691 -0.34824 0.301832
17 1 10.4192 0.011017 5.20319 -1 0 0 0.280728 0.253021 0.0261846
18 1 2.7473 2.5819 5.37821 0 0 0 -0.590387 0.171331 -0.642432
19 1 2.58033 10.4842 7.83729 0 -1 0 0.46328 0.0591981 0.403284
20 1 10.4745 2.62888 7.84528 -1 0 0 -0.0550208 0.0601841 0.0570028
21 1 5.29375 10.445 5.28818 0 -1 0 -0.480138 0.292636 -0.455949
22 1 7.80097 2.68289 5.17349 0 0 0 0.227393 -0.106362 0.371446
23 1 7.87035 10.5145 7.79342 0 -1 0 0.194196 -0.171481 0.414806
24 1 5.37226 2.63014 7.90569 0 0 0 -0.767919 -0.2265 0.070188
25 1 0.0542111 5.23334 5.26983 0 0 0 -0.27924 -0.044449 -0.0622566
26 1 2.53315 7.91304 5.19758 0 0 0 0.795364 -0.286287 -0.069277
27 1 2.63448 5.28757 7.93786 0 0 0 0.0340413 -0.141627 -0.195598
28 1 0.0245531 7.93794 7.73467 0 0 0 -0.35017 -0.589307 0.924601
29 1 5.23444 5.2333 5.30845 0 0 0 -0.184575 0.356346 -0.412511
30 1 7.80851 7.81972 5.28547 0 0 0 0.392842 0.0290801 -0.47174
31 1 7.84998 5.27242 7.86747 0 0 0 0.708819 -0.0669028 0.0530906
32 1 5.2294 7.91343 7.86968 0 0 0 -0.168665 -0.145166 0.263841
ITEM: TIMESTEP
30
ITEM: NUMBER OF ATOMS
32
ITEM: BOX BOUNDS pp pp pp
0.0000000000000000e+00 1.0493600000000001e+01
0.0000000000000000e+00 1.0493600000000001e+01
0.0000000000000000e+00 1.0493600000000001e+01
ITEM: ATOMS id type x y z ix iy iz fx fy fz
1 1 10.5245 10.4131 10.449 -1 -1 -1 -0.193765 0.470603 0.234988
2 1 2.52803 2.61281 0.0387995 0 0 0 0.394637 0.0259939 -0.335705
3 1 2.58753 10.4618 2.6453 0 -1 0 0.0260603 0.329002 0.0717438
4 1 10.4616 2.65698 2.69943 -1 0 0 0.461125 -0.196343 -0.375991
5 1 5.27022 0.0399279 0.00241486 0 0 0 -0.401549 -0.328967 -0.176323
6 1 7.90341 2.50066 0.0235756 0 0 0 0.395418 0.749581 -0.102706
7 1 7.86616 0.0342593 2.66154 0 0 0 -0.0952644 -0.355565 -0.237591
8 1 5.18408 2.59283 2.5621 0 0 0 0.270333 0.1315 0.405376
9 1 0.0248939 5.30201 -0.00497727 0 0 0 -0.258666 -0.30077 -0.134021
10 1 2.65169 7.87566 0.0814665 0 0 0 0.0265853 -0.166483 -0.415609
11 1 2.67058 5.21074 2.68483 0 0 0 -0.150638 0.193528 -0.341272
12 1 10.3929 7.83806 2.58201 -1 0 0 0.499537 0.173198 0.527215
13 1 5.36037 5.22507 10.4601 0 0 -1 -0.685122 0.057634 0.211775
14 1 7.8968 7.9115 10.4793 0 0 -1 -0.253059 0.00974574 -0.377758
15 1 7.87694 5.24601 2.58109 0 0 0 -0.236933 -0.113946 0.210931
16 1 5.29003 7.89374 2.58327 0 0 0 -0.12774 -0.2027 0.336944
17 1 10.3978 -0.0022186 5.20942 -1 0 0 0.464694 0.273482 0.00764158
18 1 2.75553 2.58086 5.37651 0 0 0 -0.680217 0.113024 -0.70348
19 1 2.59153 10.4846 7.83765 0 -1 0 0.324317 0.0618396 0.345345
20 1 10.4866 2.64173 7.83377 -1 0 0 -0.153303 -0.101141 0.127465
21 1 5.29435 10.446 5.28541 0 -1 0 -0.454753 0.215887 -0.512421
22 1 7.80126 2.67937 5.1718 0 0 0 0.225659 -0.0467453 0.347539
23 1 7.85505 10.5251 7.7978 0 -1 0 0.352586 -0.235574 0.42803
24 1 5.36686 2.62489 7.8853 0 0 0 -0.727913 -0.0469046 0.275929
25 1 0.0608494 5.22983 5.26098 0 0 0 -0.349183 0.0431732 -0.00520917
26 1 2.53625 7.89539 5.19374 0 0 0 0.685795 -0.120773 0.0347588
27 1 2.62827 5.27841 7.92926 0 0 0 0.139932 -0.0323915 -0.0897811
28 1 0.016249 7.9471 7.75775 0 0 0 -0.256729 -0.638176 0.71945
29 1 5.21979 5.2343 5.31109 0 0 0 -0.015639 0.38238 -0.389558
30 1 7.80997 7.81544 5.28533 0 0 0 0.345444 0.0370509 -0.435616
31 1 7.85677 5.27015 7.86217 0 0 0 0.543081 -0.0610864 0.121759
32 1 5.22442 7.92515 7.87673 0 0 0 -0.114729 -0.32006 0.226152
ITEM: TIMESTEP
40
ITEM: NUMBER OF ATOMS
32
ITEM: BOX BOUNDS pp pp pp
0.0000000000000000e+00 1.0493600000000001e+01
0.0000000000000000e+00 1.0493600000000001e+01
0.0000000000000000e+00 1.0493600000000001e+01
ITEM: ATOMS id type x y z ix iy iz fx fy fz
1 1 10.5389 10.4062 10.4635 -1 -1 -1 -0.28866 0.573585 0.158025
2 1 2.51274 2.61987 0.0391226 0 0 0 0.489915 0.0230013 -0.297941
3 1 2.59907 10.4616 2.65255 0 -1 0 -0.0193027 0.30986 0.0769477
4 1 10.4722 2.65738 2.70595 -1 0 0 0.372928 -0.188611 -0.41102
5 1 5.26183 0.0492342 -0.0188197 0 0 0 -0.37708 -0.329252 0.0307395
6 1 7.90236 2.49936 0.0250068 0 0 0 0.461599 0.772186 -0.148405
7 1 7.87381 0.0315207 2.65508 0 0 0 -0.179574 -0.354813 -0.238435
8 1 5.19559 2.59172 2.56173 0 0 0 0.185615 0.0735133 0.400283
9 1 0.0221957 5.32139 -0.0251191 0 0 0 -0.263889 -0.409403 0.017959
10 1 2.65757 7.88105 0.0809516 0 0 0 0.0374105 -0.239918 -0.402886
11 1 2.6797 5.21113 2.69129 0 0 0 -0.223805 0.154002 -0.45762
12 1 10.3929 7.83128 2.57437 -1 0 0 0.530063 0.171179 0.598445
13 1 5.36252 5.22161 10.4922 0 0 -1 -0.725296 0.0262798 -0.164047
14 1 7.88958 7.91476 10.4858 0 0 -1 -0.265291 0.0305864 -0.428693
15 1 7.86257 5.2485 2.58369 0 0 0 -0.0344133 -0.173513 0.25607
16 1 5.29038 7.88378 2.58093 0 0 0 -0.126178 -0.0489634 0.366215
17 1 10.3784 -0.0142788 5.21567 -1 0 0 0.630721 0.28005 0.00556965
18 1 2.7609 2.5803 5.37188 0 0 0 -0.756382 0.0581529 -0.74327
19 1 2.60405 10.4852 7.83944 0 -1 0 0.160228 0.0644083 0.270899
20 1 10.4981 2.65412 7.82281 -1 0 0 -0.239832 -0.258074 0.183369
21 1 5.29306 10.4479 5.28052 0 -1 0 -0.402144 0.130162 -0.536805
22 1 7.80249 2.67566 5.17156 0 0 0 0.224075 0.00468148 0.318528
23 1 7.84126 10.5346 7.80396 0 -1 0 0.484019 -0.294924 0.410921
24 1 5.35844 2.61945 7.8661 0 0 0 -0.665633 0.126697 0.451985
25 1 0.0660132 5.22651 5.25213 0 0 0 -0.406846 0.123935 0.0415676
26 1 2.5422 7.87728 5.19006 0 0 0 0.559329 0.0530684 0.143763
27 1 2.62266 5.26913 7.92031 0 0 0 0.230307 0.071631 0.00326995
28 1 0.00689828 7.95359 7.78376 0 0 0 -0.151071 -0.644758 0.488644
29 1 5.20511 5.2369 5.31211 0 0 0 0.16491 0.387148 -0.348771
30 1 7.81288 7.81132 5.28337 0 0 0 0.284483 0.049512 -0.379118
31 1 7.8658 5.26763 7.85739 0 0 0 0.354036 -0.0598003 0.174972
32 1 5.21897 7.9355 7.8847 0 0 0 -0.0442409 -0.481608 0.158839
ITEM: TIMESTEP
50
ITEM: NUMBER OF ATOMS
32
ITEM: BOX BOUNDS pp pp pp
0.0000000000000000e+00 1.0493600000000001e+01
0.0000000000000000e+00 1.0493600000000001e+01
0.0000000000000000e+00 1.0493600000000001e+01
ITEM: ATOMS id type x y z ix iy iz fx fy fz
1 1 10.5522 10.4017 10.4786 -1 -1 -1 -0.36592 0.652236 0.0899667
2 1 2.49955 2.627 0.0381997 0 0 0 0.574914 0.0221664 -0.258248
3 1 2.61049 10.4627 2.66009 0 -1 0 -0.0605774 0.276049 0.0626683
4 1 10.4844 2.65699 2.71073 -1 0 0 0.270914 -0.183925 -0.430154
5 1 5.25191 0.0571373 -0.0398381 0 0 0 -0.329798 -0.301592 0.249083
6 1 7.90324 2.50128 0.0258164 0 0 0 0.49347 0.771123 -0.181499
7 1 7.88069 0.0273166 2.64766 0 0 0 -0.247889 -0.333899 -0.230048
8 1 5.20783 2.59092 2.56303 0 0 0 0.10135 0.0102047 0.385698
9 1 0.01841 5.33898 -0.0451033 0 0 0 -0.25458 -0.509778 0.178976
10 1 2.66358 7.88541 0.0787614 0 0 0 0.0349673 -0.299461 -0.370176
11 1 2.68784 5.21217 2.69581 0 0 0 -0.297633 0.10756 -0.562619
12 1 10.3952 7.82524 2.56926 -1 0 0 0.54038 0.158956 0.635301
13 1 5.36163 5.21827 10.5235 0 0 -1 -0.753317 0.00123032 -0.518114
14 1 7.88127 7.91813 10.4905 0 0 -1 -0.264568 0.039926 -0.447263
15 1 7.84813 5.25026 2.58736 0 0 0 0.177246 -0.219156 0.299906
16 1 5.2902 7.87365 2.58013 0 0 0 -0.12904 0.105218 0.387113
17 1 10.3617 -0.025124 5.22193 -1 0 0 0.771363 0.277526 0.0136279
18 1 2.7631 2.58 5.36417 0 0 0 -0.813649 0.0120204 -0.761
19 1 2.61718 10.4861 7.84235 0 -1 0 -0.0206334 0.0675817 0.18276
20 1 10.5085 2.66538 7.81266 -1 0 0 -0.310676 -0.403777 0.230167
21 1 5.29009 10.4503 5.27341 0 -1 0 -0.325011 0.0423554 -0.522359
22 1 7.80466 2.67198 5.17266 0 0 0 0.216961 0.0433464 0.286557
23 1 7.82954 10.5429 7.81179 0 -1 0 0.580906 -0.34361 0.365378
24 1 5.34728 2.61456 7.84886 0 0 0 -0.580222 0.28148 0.590157
25 1 0.0694614 5.22372 5.24349 0 0 0 -0.448468 0.194065 0.0797538
26 1 2.55046 7.85946 5.18699 0 0 0 0.424852 0.227136 0.247523
27 1 2.61803 5.26019 7.9114 0 0 0 0.301596 0.166082 0.0814457
28 1 -0.00304624 7.95737 7.81171 0 0 0 -0.0427354 -0.609838 0.24283
29 1 5.19118 5.24109 5.31166 0 0 0 0.345482 0.365585 -0.295197
30 1 7.81696 7.80742 5.27985 0 0 0 0.216009 0.0659169 -0.306623
31 1 7.87628 5.26486 7.85335 0 0 0 0.156524 -0.0602575 0.208051
32 1 5.21337 7.9438 7.89329 0 0 0 0.0377827 -0.622472 0.066337
ITEM: TIMESTEP
60
ITEM: NUMBER OF ATOMS
32
ITEM: BOX BOUNDS pp pp pp
0.0000000000000000e+00 1.0493600000000001e+01
0.0000000000000000e+00 1.0493600000000001e+01
0.0000000000000000e+00 1.0493600000000001e+01
ITEM: ATOMS id type x y z ix iy iz fx fy fz
1 1 10.5638 10.3999 10.4939 -1 -1 -1 -0.420514 0.7004 0.0287443
2 1 2.48882 2.63419 0.0362015 0 0 0 0.64463 0.0226543 -0.220113
3 1 2.6216 10.4649 2.66785 0 -1 0 -0.100878 0.228304 0.0279004
4 1 10.4976 2.65584 2.71369 -1 0 0 0.158721 -0.180991 -0.434505
5 1 5.24067 0.0637506 -0.0597157 0 0 0 -0.25929 -0.25147 0.468746
6 1 7.90616 2.50641 0.0258685 0 0 0 0.492562 0.747337 -0.200399
7 1 7.8865 0.0217435 2.63931 0 0 0 -0.296439 -0.294358 -0.210063
8 1 5.22044 2.59017 2.56593 0 0 0 0.0215186 -0.0513146 0.361795
9 1 0.0135833 5.35437 -0.064242 0 0 0 -0.230505 -0.603863 0.349103
10 1 2.66971 7.88851 0.0750409 0 0 0 0.0168472 -0.342034 -0.319676
11 1 2.69471 5.21365 2.69796 0 0 0 -0.369397 0.0591235 -0.646928
12 1 10.3996 7.8199 2.56681 -1 0 0 0.530576 0.141725 0.635223
13 1 5.3576 5.21496 10.5525 0 0 -1 -0.763635 -0.017713 -0.83439
14 1 7.8719 7.92165 10.4932 0 0 -1 -0.250499 0.0351705 -0.432817
15 1 7.83449 5.2511 2.59226 0 0 0 0.381743 -0.248165 0.331999
16 1 5.28948 7.86401 2.58095 0 0 0 -0.134087 0.250858 0.395939
17 1 10.3483 -0.03476 5.22821 -1 0 0 0.881081 0.269966 0.0245826
18 1 2.76189 2.57974 5.35332 0 0 0 -0.841887 -0.0211476 -0.750695
19 1 2.63017 10.4873 7.846 0 -1 0 -0.208157 0.0705424 0.0838211
20 1 10.5176 2.67492 7.80352 -1 0 0 -0.363722 -0.531198 0.26854
21 1 5.28579 10.4529 5.26417 0 -1 0 -0.228396 -0.0397854 -0.465971
22 1 7.80772 2.66849 5.17495 0 0 0 0.206318 0.0660224 0.25596
23 1 7.82028 10.5497 7.82111 0 -1 0 0.638614 -0.376237 0.296587
24 1 5.33375 2.61085 7.83415 0 0 0 -0.479022 0.407243 0.683382
25 1 0.0710258 5.22174 5.23522 0 0 0 -0.470854 0.25032 0.111897
26 1 2.56046 7.84267 5.18496 0 0 0 0.28788 0.393127 0.338169
27 1 2.61467 5.25197 7.90287 0 0 0 0.350555 0.246801 0.143426
28 1 -0.0131238 7.9586 7.84053 0 0 0 0.0615477 -0.536645 -0.00814142
29 1 5.17876 5.24678 5.30999 0 0 0 0.511356 0.315392 -0.234993
30 1 7.82192 7.80382 5.27506 0 0 0 0.146093 0.0859796 -0.22295
31 1 7.88736 5.26186 7.8502 0 0 0 -0.0380669 -0.0600451 0.219784
32 1 5.20795 7.94947 7.90211 0 0 0 0.125305 -0.735997 -0.0439554
ITEM: TIMESTEP
70
ITEM: NUMBER OF ATOMS
32
ITEM: BOX BOUNDS pp pp pp
0.0000000000000000e+00 1.0493600000000001e+01
0.0000000000000000e+00 1.0493600000000001e+01
0.0000000000000000e+00 1.0493600000000001e+01
ITEM: ATOMS id type x y z ix iy iz fx fy fz
1 1 10.5736 10.4011 10.5094 -1 -1 -1 -0.45642 0.716009 -0.0282689
2 1 2.48083 2.64143 0.0332917 0 0 0 0.701933 0.0208138 -0.185868
3 1 2.63224 10.4681 2.67567 0 -1 0 -0.142936 0.168086 -0.0270535
4 1 10.5114 2.65393 2.71483 -1 0 0 0.0395446 -0.177523 -0.426076
5 1 5.2284 0.0692859 -0.0775414 0 0 0 -0.167803 -0.187694 0.677415
6 1 7.91111 2.51463 0.0250878 0 0 0 0.462266 0.703188 -0.204851
7 1 7.89106 0.0149726 2.63013 0 0 0 -0.323365 -0.239127 -0.177025
8 1 5.23308 2.58921 2.57033 0 0 0 -0.0479578 -0.103158 0.328934
9 1 0.00782165 5.36715 -0.0818265 0 0 0 -0.192327 -0.692862 0.525977
10 1 2.67587 7.89017 0.0700073 0 0 0 -0.0178502 -0.36546 -0.255185
11 1 2.7 5.21537 2.69742 0 0 0 -0.435106 0.0144466 -0.700822
12 1 10.4063 7.81517 2.56701 -1 0 0 0.502641 0.125281 0.599316
13 1 5.35041 5.21158 10.5779 0 0 -1 -0.747107 -0.0308919 -1.09685
14 1 7.86154 7.92529 10.4942 0 0 -1 -0.224045 0.0149678 -0.387966
15 1 7.8225 5.25091 2.59852 0 0 0 0.560778 -0.259364 0.34058
16 1 5.2882 7.85545 2.58341 0 0 0 -0.138407 0.377785 0.388394
17 1 10.3386 -0.043222 5.23457 -1 0 0 0.956466 0.26019 0.0317897
18 1 2.75718 2.57941 5.33941 0 0 0 -0.840808 -0.0357688 -0.703119
19 1 2.64222 10.4888 7.84999 0 -1 0 -0.390703 0.0710575 -0.0221656
20 1 10.5251 2.68219 7.79554 -1 0 0 -0.398715 -0.633282 0.294136
21 1 5.28056 10.4554 5.25304 0 -1 0 -0.119007 -0.108962 -0.368408
22 1 7.81163 2.66529 5.1783 0 0 0 0.191696 0.0711861 0.229178
23 1 7.81373 10.5549 7.83162 0 -1 0 0.655957 -0.389225 0.212156
24 1 5.31828 2.60886 7.82235 0 0 0 -0.367088 0.496802 0.729558
25 1 0.0706222 5.22082 5.22745 0 0 0 -0.471771 0.289936 0.140956
26 1 2.57161 7.8276 5.18435 0 0 0 0.151726 0.542657 0.410103
27 1 2.61279 5.24483 7.89497 0 0 0 0.374046 0.310173 0.18848
28 1 -0.022898 7.95759 7.86919 0 0 0 0.157597 -0.430804 -0.254828
29 1 5.16852 5.25375 5.30734 0 0 0 0.656223 0.234688 -0.174878
30 1 7.82747 7.8006 5.26936 0 0 0 0.0800654 0.109902 -0.132907
31 1 7.89824 5.25863 7.84797 0 0 0 -0.221176 -0.0574336 0.211776
32 1 5.20308 7.95205 7.9107 0 0 0 0.211655 -0.815614 -0.162475
ITEM: TIMESTEP
80
ITEM: NUMBER OF ATOMS
32
ITEM: BOX BOUNDS pp pp pp
0.0000000000000000e+00 1.0493600000000001e+01
0.0000000000000000e+00 1.0493600000000001e+01
0.0000000000000000e+00 1.0493600000000001e+01
ITEM: ATOMS id type x y z ix iy iz fx fy fz
1 1 10.5815 10.4052 10.5246 -1 -1 -1 -0.471212 0.696576 -0.0838779
2 1 2.4758 2.64874 0.029616 0 0 0 0.739349 0.0154251 -0.155763
3 1 2.64223 10.472 2.68335 0 -1 0 -0.188525 0.097516 -0.100467
4 1 10.5254 2.6513 2.71419 -1 0 0 -0.083942 -0.170836 -0.407565
5 1 5.21549 0.0740144 -0.0924688 0 0 0 -0.0604122 -0.120845 0.860827
6 1 7.91797 2.52575 0.0234586 0 0 0 0.406926 0.641621 -0.195704
7 1 7.89425 0.00723431 2.62025 0 0 0 -0.328684 -0.172 -0.130736
8 1 5.24548 2.58782 2.57608 0 0 0 -0.109973 -0.137668 0.284478
9 1 0.00128417 5.37699 -0.0971377 0 0 0 -0.141823 -0.775717 0.703407
10 1 2.68192 7.89031 0.0639308 0 0 0 -0.0679595 -0.368547 -0.181809
11 1 2.70346 5.21715 2.69395 0 0 0 -0.489828 -0.0207625 -0.715646
12 1 10.415 7.81099 2.56971 -1 0 0 0.459704 0.115025 0.531948
13 1 5.34014 5.2081 10.5987 0 0 -1 -0.694128 -0.0383874 -1.29095
14 1 7.85029 7.92897 10.4936 0 0 -1 -0.18687 -0.02063 -0.318225
15 1 7.8129 5.24963 2.60616 0 0 0 0.697171 -0.252915 0.315452
16 1 5.28636 7.8485 2.58748 0 0 0 -0.139236 0.475543 0.360507
17 1 10.333 -0.0505609 5.24103 -1 0 0 0.996216 0.24966 0.0302876
18 1 2.74899 2.57893 5.32262 0 0 0 -0.799587 -0.0307503 -0.616256
19 1 2.65259 10.4905 7.85387 0 -1 0 -0.555455 0.0661472 -0.129722
20 1 10.5309 2.68679 7.78882 -1 0 0 -0.410656 -0.703764 0.309799
21 1 5.27486 10.4573 5.24043 0 -1 0 -0.00430384 -0.159485 -0.234015
22 1 7.81632 2.6624 5.1826 0 0 0 0.173071 0.0590038 0.20731
23 1 7.80993 10.5585 7.84297 0 -1 0 0.635146 -0.381571 0.120753
24 1 5.30135 2.60893 7.81363 0 0 0 -0.249607 0.546242 0.73074
25 1 0.0682555 5.22111 5.22031 0 0 0 -0.450281 0.310793 0.169835
26 1 2.58335 7.81486 5.18545 0 0 0 0.0191412 0.667483 0.459684
27 1 2.61246 5.239 7.88789 0 0 0 0.369359 0.353692 0.216429
28 1 -0.0319761 7.95479 7.89666 0 0 0 0.242872 -0.300882 -0.487349
29 1 5.16106 5.26167 5.30396 0 0 0 0.767294 0.127945 -0.121492
30 1 7.83333 7.79785 5.26314 0 0 0 0.0220733 0.138289 -0.0410121
31 1 7.90815 5.25517 7.84663 0 0 0 -0.385869 -0.0513178 0.187701
32 1 5.19911 7.95122 7.91858 0 0 0 0.29003 -0.854879 -0.278572
ITEM: TIMESTEP
90
ITEM: NUMBER OF ATOMS
32
ITEM: BOX BOUNDS pp pp pp
0.0000000000000000e+00 1.0493600000000001e+01
0.0000000000000000e+00 1.0493600000000001e+01
0.0000000000000000e+00 1.0493600000000001e+01
ITEM: ATOMS id type x y z ix iy iz fx fy fz
1 1 10.5875 10.4122 10.5394 -1 -1 -1 -0.466488 0.64313 -0.140592
2 1 2.47387 2.65608 0.0252965 0 0 0 0.757242 0.00427715 -0.132538
3 1 2.65141 10.4762 2.69058 0 -1 0 -0.237966 0.0193053 -0.188974
4 1 10.5389 2.64795 2.71184 -1 0 0 -0.206857 -0.158413 -0.381227
5 1 5.20236 0.0782218 -0.103767 0 0 0 0.055212 -0.0613875 1.00404
6 1 7.92651 2.53952 0.0210189 0 0 0 0.330922 0.565254 -0.174616
7 1 7.89606 -0.00120001 2.60985 0 0 0 -0.31405 -0.0970891 -0.0723739
8 1 5.25738 2.58588 2.58301 0 0 0 -0.160604 -0.148669 0.228955
9 1 -0.00582577 5.38356 -0.109467 0 0 0 -0.0819767 -0.845068 0.869728
10 1 2.68767 7.8889 0.0571111 0 0 0 -0.130046 -0.351083 -0.10553
11 1 2.70486 5.21885 2.68752 0 0 0 -0.528463 -0.0419485 -0.685666
12 1 10.4257 7.80731 2.57462 -1 0 0 0.40509 0.112514 0.440668
13 1 5.32701 5.20447 10.614 0 0 -1 -0.598422 -0.0400427 -1.4067
14 1 7.83828 7.93255 10.4916 0 0 -1 -0.140544 -0.0701887 -0.231159
15 1 7.80621 5.24731 2.61509 0 0 0 0.778772 -0.230101 0.251324
16 1 5.28393 7.84354 2.59303 0 0 0 -0.134772 0.535061 0.309774
17 1 10.3315 -0.0568353 5.24759 -1 0 0 1.00088 0.238732 0.017298
18 1 2.73748 2.57834 5.30331 0 0 0 -0.720487 -0.00647429 -0.491251
19 1 2.66062 10.4925 7.85719 0 -1 0 -0.689141 0.0531797 -0.231189
20 1 10.535 2.68846 7.78341 -1 0 0 -0.404348 -0.737944 0.318659
21 1 5.26916 10.4586 5.22688 0 -1 0 0.10835 -0.188005 -0.070115
22 1 7.82172 2.65975 5.18775 0 0 0 0.150878 0.0311723 0.190075
23 1 7.80879 10.5605 7.85479 0 -1 0 0.581228 -0.354874 0.0306345
24 1 5.28342 2.61128 7.80798 0 0 0 -0.131433 0.554687 0.69273
25 1 0.0640184 5.22269 5.2139 0 0 0 -0.406899 0.311648 0.200972
26 1 2.59514 7.80493 5.18846 0 0 0 -0.106377 0.76003 0.485038
27 1 2.61368 5.23466 7.88173 0 0 0 0.334842 0.376491 0.22765
28 1 -0.0400175 7.95074 7.92203 0 0 0 0.315492 -0.159127 -0.694606
29 1 5.15682 5.27009 5.30009 0 0 0 0.83664 0.00256707 -0.0803856
30 1 7.83928 7.79569 5.25676 0 0 0 -0.025093 0.171766 0.0485767
31 1 7.91642 5.2515 7.84607 0 0 0 -0.525749 -0.0409907 0.15263
32 1 5.19637 7.94684 7.92528 0 0 0 0.354166 -0.848409 -0.381826
ITEM: TIMESTEP
100
ITEM: NUMBER OF ATOMS
32
ITEM: BOX BOUNDS pp pp pp
0.0000000000000000e+00 1.0493600000000001e+01
0.0000000000000000e+00 1.0493600000000001e+01
0.0000000000000000e+00 1.0493600000000001e+01
ITEM: ATOMS id type x y z ix iy iz fx fy fz
1 1 10.5914 10.4219 10.5537 -1 -1 -1 -0.445013 0.559244 -0.200334
2 1 2.47511 2.66344 0.0204243 0 0 0 0.755981 -0.0149118 -0.112715
3 1 2.65958 10.4806 2.69701 0 -1 0 -0.289735 -0.063196 -0.287282
4 1 10.5516 2.64395 2.7079 -1 0 0 -0.332325 -0.13833 -0.352034
5 1 5.18947 0.0821641 -0.110871 0 0 0 0.169632 -0.017835 1.09352
6 1 7.93642 2.55564 0.0178525 0 0 0 0.237974 0.475752 -0.143752
7 1 7.89656 -0.0100349 2.59917 0 0 0 -0.28231 -0.018425 -0.00434542
8 1 5.26861 2.58332 2.59088 0 0 0 -0.199665 -0.132632 0.163191
9 1 -0.0132732 5.3866 -0.118154 0 0 0 -0.016855 -0.897207 1.01168
10 1 2.69287 7.88604 0.0498521 0 0 0 -0.198709 -0.313752 -0.0326594
11 1 2.70405 5.22037 2.67824 0 0 0 -0.546616 -0.0467916 -0.609736
12 1 10.438 7.8041 2.58137 -1 0 0 0.341663 0.125442 0.331582
13 1 5.31139 5.20067 10.6234 0 0 -1 -0.459908 -0.035656 -1.44154
14 1 7.8257 7.93583 10.4887 0 0 -1 -0.0860421 -0.131057 -0.135249
15 1 7.80278 5.24403 2.62505 0 0 0 0.801517 -0.193108 0.15011
16 1 5.28095 7.84082 2.59988 0 0 0 -0.12471 0.550549 0.236227
17 1 10.3342 -0.0621061 5.25422 -1 0 0 0.972383 0.227092 -0.00788016
18 1 2.72298 2.57772 5.28197 0 0 0 -0.606627 0.0344668 -0.331769
19 1 2.66577 10.4948 7.85955 0 -1 0 -0.779386 0.031013 -0.317097
20 1 10.5374 2.68704 7.77933 -1 0 0 -0.378237 -0.733352 0.321413
21 1 5.2639 10.4592 5.21306 0 -1 0 0.212138 -0.193608 0.113638
22 1 7.82775 2.65723 5.1937 0 0 0 0.12592 -0.0093657 0.176034
23 1 7.81007 10.561 7.86674 0 -1 0 0.501162 -0.312769 -0.0515334
24 1 5.26495 2.61594 7.80523 0 0 0 -0.0165647 0.523668 0.623917
25 1 0.058086 5.22556 5.20833 0 0 0 -0.343611 0.292398 0.236013
26 1 2.60648 7.79818 5.1935 0 0 0 -0.220022 0.814208 0.486007
27 1 2.61628 5.2319 7.87652 0 0 0 0.27055 0.379597 0.222999
28 1 -0.0467374 7.94603 7.94449 0 0 0 0.373551 -0.0214458 -0.864248
29 1 5.15607 5.27852 5.29588 0 0 0 0.859167 -0.131085 -0.0551423
30 1 7.84512 7.79425 5.25058 0 0 0 -0.0599606 0.210465 0.132021
31 1 7.9225 5.24767 7.84615 0 0 0 -0.634436 -0.0259204 0.112422
32 1 5.1951 7.93891 7.93037 0 0 0 0.399097 -0.793447 -0.463465
ITEM: TIMESTEP
110
ITEM: NUMBER OF ATOMS
32
ITEM: BOX BOUNDS pp pp pp
0.0000000000000000e+00 1.0493600000000001e+01
0.0000000000000000e+00 1.0493600000000001e+01
0.0000000000000000e+00 1.0493600000000001e+01
ITEM: ATOMS id type x y z ix iy iz fx fy fz
1 1 10.5935 10.434 10.5671 -1 -1 -1 -0.410327 0.450455 -0.264314
2 1 2.47952 2.67075 0.0150684 0 0 0 0.730711 -0.0442289 -0.0955998
3 1 2.66655 10.4846 2.70225 0 -1 0 -0.340327 -0.145816 -0.387924
4 1 10.5629 2.63936 2.70248 -1 0 0 -0.455223 -0.109538 -0.321885
5 1 5.17727 0.0860321 -0.113423 0 0 0 0.273181 0.00459768 1.11972
6 1 7.94734 2.57379 0.0140791 0 0 0 0.130771 0.373577 -0.105575
7 1 7.89588 -0.0189649 2.58844 0 0 0 -0.237036 0.060281 0.0700618
8 1 5.27903 2.58021 2.59945 0 0 0 -0.228056 -0.0894896 0.089711
9 1 -0.0208061 5.38588 -0.122628 0 0 0 0.0491675 -0.917371 1.11128
10 1 2.69725 7.88186 0.042438 0 0 0 -0.267347 -0.258075 0.030809
11 1 2.70096 5.2217 2.66639 0 0 0 -0.541314 -0.0358615 -0.492077
12 1 10.4518 7.80142 2.58951 -1 0 0 0.271277 0.151604 0.213585
13 1 5.29383 5.19672 10.6268 0 0 -1 -0.285328 -0.0250529 -1.40089
14 1 7.81274 7.93856 10.4852 0 0 -1 -0.0237333 -0.199613 -0.0387483
15 1 7.80268 5.23994 2.63565 0 0 0 0.770004 -0.144737 0.0209398
16 1 5.27744 7.84038 2.60772 0 0 0 -0.110273 0.520882 0.143046
17 1 10.341 -0.0664352 5.26083 -1 0 0 0.913453 0.214256 -0.0443899
18 1 2.70591 2.57725 5.25921 0 0 0 -0.466416 0.0886 -0.144869
19 1 2.66769 10.4971 7.8606 0 -1 0 -0.81656 0.000719671 -0.377513
20 1 10.5383 2.68255 7.7766 -1 0 0 -0.335032 -0.690194 0.319844
21 1 5.25952 10.4589 5.19969 0 -1 0 0.300847 -0.177412 0.305838
22 1 7.83432 2.65467 5.2004 0 0 0 0.0991785 -0.0587511 0.162959
23 1 7.81346 10.5602 7.8785 0 -1 0 0.402831 -0.260087 -0.12128
24 1 5.24637 2.62279 7.80508 0 0 0 0.0922078 0.456346 0.533628
25 1 0.0507057 5.22967 5.20375 0 0 0 -0.263749 0.254318 0.275527
26 1 2.61693 7.79482 5.20057 0 0 0 -0.315981 0.826288 0.463996
27 1 2.62002 5.23071 7.87223 0 0 0 0.178674 0.365764 0.203694
28 1 -0.0519095 7.94121 7.96338 0 0 0 0.41489 0.0942403 -0.983902
29 1 5.1589 5.28641 5.29141 0 0 0 0.835671 -0.262177 -0.0468645
30 1 7.85072 7.7937 5.24495 0 0 0 -0.0822103 0.253547 0.205726
31 1 7.92594 5.24372 7.84671 0 0 0 -0.705746 -0.00572868 0.0730322
32 1 5.1955 7.92766 7.93355 0 0 0 0.421796 -0.691341 -0.517576
ITEM: TIMESTEP
120
ITEM: NUMBER OF ATOMS
32
ITEM: BOX BOUNDS pp pp pp
0.0000000000000000e+00 1.0493600000000001e+01
0.0000000000000000e+00 1.0493600000000001e+01
0.0000000000000000e+00 1.0493600000000001e+01
ITEM: ATOMS id type x y z ix iy iz fx fy fz
1 1 10.5939 10.448 10.5795 -1 -1 -1 -0.366339 0.323335 -0.332987
2 1 2.48701 2.6779 0.00928462 0 0 0 0.67944 -0.0852292 -0.0790749
3 1 2.67214 10.4881 2.70588 0 -1 0 -0.38453 -0.223362 -0.481303
4 1 10.5723 2.63429 2.69567 -1 0 0 -0.572139 -0.0720119 -0.292417
5 1 5.16614 0.0899303 -0.111307 0 0 0 0.35801 0.00448646 1.07923
6 1 7.95886 2.59359 0.00984529 0 0 0 0.0109149 0.258136 -0.0626984
7 1 7.89421 -0.0276864 2.57796 0 0 0 -0.182074 0.135711 0.147106
8 1 5.28854 2.57671 2.60844 0 0 0 -0.247532 -0.0227986 0.0127683
9 1 -0.0281703 5.38132 -0.122476 0 0 0 0.112355 -0.893325 1.15307
10 1 2.70053 7.87657 0.0351123 0 0 0 -0.329147 -0.186414 0.0798951
11 1 2.69558 5.22289 2.65243 0 0 0 -0.511305 -0.0126162 -0.341831
12 1 10.4667 7.79937 2.5986 -1 0 0 0.194855 0.189512 0.0941819
13 1 5.27499 5.19264 10.6244 0 0 -1 -0.0865367 -0.00790383 -1.29606
14 1 7.79961 7.94047 10.4815 0 0 -1 0.0461626 -0.271471 0.0512987
15 1 7.8058 5.23523 2.64639 0 0 0 0.695297 -0.0880804 -0.122118
16 1 5.27344 7.84212 2.6162 0 0 0 -0.0937088 0.449922 0.036457
17 1 10.3517 -0.0698857 5.26727 -1 0 0 0.827052 0.199978 -0.0904954
18 1 2.6868 2.57716 5.23573 0 0 0 -0.302061 0.14859 0.0593033
19 1 2.6662 10.4995 7.86007 0 -1 0 -0.795658 -0.0343986 -0.404057
20 1 10.5377 2.67516 7.77519 -1 0 0 -0.278792 -0.611246 0.315757
21 1 5.25638 10.4579 5.18753 0 -1 0 0.368815 -0.141984 0.4939
22 1 7.84134 2.65184 5.20782 0 0 0 0.0716439 -0.112518 0.148245
23 1 7.81855 10.5583 7.88982 0 -1 0 0.294131 -0.20208 -0.176323
24 1 5.22809 2.63158 7.80717 0 0 0 0.193363 0.356939 0.430392
25 1 0.0421855 5.23485 5.2003 0 0 0 -0.171754 0.200129 0.318825
26 1 2.62611 7.7949 5.20962 0 0 0 -0.388455 0.795638 0.421532
27 1 2.62452 5.23106 7.86877 0 0 0 0.0636138 0.338849 0.171214
28 1 -0.0553702 7.93675 7.97826 0 0 0 0.437289 0.17162 -1.04386
29 1 5.16525 5.29324 5.28673 0 0 0 0.762654 -0.377854 -0.0541937
30 1 7.85601 7.79421 5.24014 0 0 0 -0.0924691 0.298907 0.266343
31 1 7.92645 5.23973 7.84758 0 0 0 -0.734548 0.019612 0.0396398